# vtk DataFile Version 3.0
CFD Engine Output - Step 80 - Time 8.0000
ASCII
DATASET STRUCTURED_POINTS
DIMENSIONS 24 24 24
ORIGIN 0 0 0
SPACING 1 1 1
POINT_DATA 13824
SCALARS pressure double 1
LOOKUP_TABLE default
124.570782 124.570782 110.488255 93.629760 79.818937 69.563409 61.772335 55.253985 48.962541 42.484982 35.862748 29.638015 24.802232 22.035813 21.904389 24.974939 31.865277 43.032655 57.849581 76.279846 80.242765 92.211113 124.570782 124.570782 
124.570782 124.570782 110.488255 93.629760 79.818937 69.563409 61.772335 55.253985 48.962541 42.484982 35.862748 29.638015 24.802232 22.035813 21.904389 24.974939 31.865277 43.032655 57.849581 76.279846 80.242765 92.211113 124.570782 124.570782 
92.211113 92.211113 79.595874 64.460450 53.319252 46.369373 41.060943 35.721354 29.799515 23.491708 17.250844 11.812824 8.068455 6.610890 7.920909 12.442423 20.683822 32.999703 48.365209 67.255733 71.092325 79.595874 110.488255 110.488255 
80.242765 80.242765 71.092325 60.148377 51.954779 45.968615 40.056040 33.002869 24.665009 15.683321 6.706318 -0.870333 -5.813939 -7.563855 -5.751290 -0.149078 9.403732 22.811351 38.505122 57.128106 60.148377 64.460450 93.629760 93.629760 
76.279846 76.279846 67.255733 57.128106 49.309807 42.874970 35.895775 27.287603 17.143724 6.719432 -2.151958 -8.450338 -12.674682 -14.884770 -13.927010 -8.534060 1.536277 15.599721 31.304853 49.309807 51.954779 53.319252 79.818937 79.818937 
57.849581 57.849581 48.365209 38.505122 31.304853 25.311648 18.172024 8.766794 -2.022034 -11.547530 -17.718150 -21.044459 -23.062756 -23.787752 -21.853028 -16.042980 -5.527769 9.268653 25.311648 42.874970 45.968615 46.369373 69.563409 69.563409 
43.032655 43.032655 32.999703 22.811351 15.599721 9.268653 0.970811 -9.964941 -20.681571 -28.164920 -32.044818 -33.961178 -34.605139 -34.115759 -31.920553 -26.205246 -15.070554 0.970811 18.172024 35.895775 40.056040 41.060943 61.772335 61.772335 
31.865277 31.865277 20.683822 9.403732 1.536277 -5.527769 -15.070554 -25.932611 -33.548102 -36.328966 -36.360463 -36.439593 -37.066148 -37.634128 -37.317494 -34.489787 -25.932611 -9.964941 8.766794 27.287603 33.002869 35.721354 55.253985 55.253985 
24.974939 24.974939 12.442423 -0.149078 -8.534060 -16.042980 -26.205246 -34.489787 -37.691886 -37.111274 -36.543666 -36.148766 -36.132182 -36.642730 -37.762361 -37.691886 -33.548102 -20.681571 -2.022034 17.143724 24.665009 29.799515 48.962541 48.962541 
21.904389 21.904389 7.920909 -5.751290 -13.927010 -21.853028 -31.920553 -37.317494 -37.762361 -36.819728 -36.281220 -36.094592 -36.147669 -36.411176 -36.819728 -37.111274 -36.328966 -28.164920 -11.547530 6.719432 15.683321 23.491708 42.484982 42.484982 
22.035813 22.035813 6.610890 -7.563855 -14.884770 -23.787752 -34.115759 -37.634128 -36.642730 -36.411176 -35.948704 -35.811991 -35.783125 -35.948704 -36.281220 -36.543666 -36.360463 -32.044818 -17.718150 -2.151958 6.706318 17.250844 35.862748 35.862748 
24.802232 24.802232 8.068455 -5.813939 -12.674682 -23.062756 -34.605139 -37.066148 -36.132182 -36.147669 -35.783125 -35.709089 -35.709089 -35.811991 -36.094592 -36.148766 -36.439593 -33.961178 -21.044459 -8.450338 -0.870333 11.812824 29.638015 29.638015 
29.638015 29.638015 11.812824 -0.870333 -8.450338 -21.044459 -33.961178 -36.439593 -36.148766 -36.094592 -35.811991 -35.709089 -35.709089 -35.783125 -36.147669 -36.132182 -37.066148 -34.605139 -23.062756 -12.674682 -5.813939 8.068455 24.802232 24.802232 
35.862748 35.862748 17.250844 6.706318 -2.151958 -17.718150 -32.044818 -36.360463 -36.543666 -36.281220 -35.948704 -35.783125 -35.811991 -35.948704 -36.411176 -36.642730 -37.634128 -34.115759 -23.787752 -14.884770 -7.563855 6.610890 22.035813 22.035813 
42.484982 42.484982 23.491708 15.683321 6.719432 -11.547530 -28.164920 -36.328966 -37.111274 -36.819728 -36.411176 -36.147669 -36.094592 -36.281220 -36.819728 -37.762361 -37.317494 -31.920553 -21.853028 -13.927010 -5.751290 7.920909 21.904389 21.904389 
48.962541 48.962541 29.799515 24.665009 17.143724 -2.022034 -20.681571 -33.548102 -37.691886 -37.762361 -36.642730 -36.132182 -36.148766 -36.543666 -37.111274 -37.691886 -34.489787 -26.205246 -16.042980 -8.534060 -0.149078 12.442423 24.974939 24.974939 
55.253985 55.253985 35.721354 33.002869 27.287603 8.766794 -9.964941 -25.932611 -34.489787 -37.317494 -37.634128 -37.066148 -36.439593 -36.360463 -36.328966 -33.548102 -25.932611 -15.070554 -5.527769 1.536277 9.403732 20.683822 31.865277 31.865277 
61.772335 61.772335 41.060943 40.056040 35.895775 18.172024 0.970811 -15.070554 -26.205246 -31.920553 -34.115759 -34.605139 -33.961178 -32.044818 -28.164920 -20.681571 -9.964941 0.970811 9.268653 15.599721 22.811351 32.999703 43.032655 43.032655 
69.563409 69.563409 46.369373 45.968615 42.874970 25.311648 9.268653 -5.527769 -16.042980 -21.853028 -23.787752 -23.062756 -21.044459 -17.718150 -11.547530 -2.022034 8.766794 18.172024 25.311648 31.304853 38.505122 48.365209 57.849581 57.849581 
79.818937 79.818937 53.319252 51.954779 49.309807 31.304853 15.599721 1.536277 -8.534060 -13.927010 -14.884770 -12.674682 -8.450338 -2.151958 6.719432 17.143724 27.287603 35.895775 42.874970 49.309807 57.128106 67.255733 76.279846 76.279846 
93.629760 93.629760 64.460450 60.148377 57.128106 38.505122 22.811351 9.403732 -0.149078 -5.751290 -7.563855 -5.813939 -0.870333 6.706318 15.683321 24.665009 33.002869 40.056040 45.968615 51.954779 60.148377 71.092325 80.242765 80.242765 
110.488255 110.488255 79.595874 71.092325 67.255733 48.365209 32.999703 20.683822 12.442423 7.920909 6.610890 8.068455 11.812824 17.250844 23.491708 29.799515 35.721354 41.060943 46.369373 53.319252 64.460450 79.595874 92.211113 92.211113 
124.570782 124.570782 92.211113 80.242765 76.279846 57.849581 43.032655 31.865277 24.974939 21.904389 22.035813 24.802232 29.638015 35.862748 42.484982 48.962541 55.253985 61.772335 69.563409 79.818937 93.629760 110.488255 124.570782 124.570782 
124.570782 124.570782 92.211113 80.242765 76.279846 57.849581 43.032655 31.865277 24.974939 21.904389 22.035813 24.802232 29.638015 35.862748 42.484982 48.962541 55.253985 61.772335 69.563409 79.818937 93.629760 110.488255 124.570782 124.570782 
124.570782 124.570782 110.488255 93.629760 79.818937 69.563409 61.772335 55.253985 48.962541 42.484982 35.862748 29.638015 24.802232 22.035813 21.904389 24.974939 31.865277 43.032655 57.849581 76.279846 80.242765 92.211113 124.570782 124.570782 
124.570782 124.570782 110.488255 93.629760 79.818937 69.563409 61.772335 55.253985 48.962541 42.484982 35.862748 29.638015 24.802232 22.035813 21.904389 24.974939 31.865277 43.032655 57.849581 76.279846 80.242765 92.211113 124.570782 124.570782 
92.211113 92.211113 79.595874 64.460450 53.319252 46.369373 41.060943 35.721354 29.799515 23.491708 17.250844 11.812824 8.068455 6.610890 7.920909 12.442423 20.683822 32.999703 48.365209 67.255733 71.092325 79.595874 110.488255 110.488255 
80.242765 80.242765 71.092325 60.148377 51.954779 45.968615 40.056040 33.002869 24.665009 15.683321 6.706318 -0.870333 -5.813939 -7.563855 -5.751290 -0.149078 9.403732 22.811351 38.505122 57.128106 60.148377 64.460450 93.629760 93.629760 
76.279846 76.279846 67.255733 57.128106 49.309807 42.874970 35.895775 27.287603 17.143724 6.719432 -2.151958 -8.450338 -12.674682 -14.884770 -13.927010 -8.534060 1.536277 15.599721 31.304853 49.309807 51.954779 53.319252 79.818937 79.818937 
57.849581 57.849581 48.365209 38.505122 31.304853 25.311648 18.172024 8.766794 -2.022034 -11.547530 -17.718150 -21.044459 -23.062756 -23.787752 -21.853028 -16.042980 -5.527769 9.268653 25.311648 42.874970 45.968615 46.369373 69.563409 69.563409 
43.032655 43.032655 32.999703 22.811351 15.599721 9.268653 0.970811 -9.964941 -20.681571 -28.164920 -32.044818 -33.961178 -34.605139 -34.115759 -31.920553 -26.205246 -15.070554 0.970811 18.172024 35.895775 40.056040 41.060943 61.772335 61.772335 
31.865277 31.865277 20.683822 9.403732 1.536277 -5.527769 -15.070554 -25.932611 -33.548102 -36.328966 -36.360463 -36.439593 -37.066148 -37.634128 -37.317494 -34.489787 -25.932611 -9.964941 8.766794 27.287603 33.002869 35.721354 55.253985 55.253985 
24.974939 24.974939 12.442423 -0.149078 -8.534060 -16.042980 -26.205246 -34.489787 -37.691886 -37.111274 -36.543666 -36.148766 -36.132182 -36.642730 -37.762361 -37.691886 -33.548102 -20.681571 -2.022034 17.143724 24.665009 29.799515 48.962541 48.962541 
21.904389 21.904389 7.920909 -5.751290 -13.927010 -21.853028 -31.920553 -37.317494 -37.762361 -36.819728 -36.281220 -36.094592 -36.147669 -36.411176 -36.819728 -37.111274 -36.328966 -28.164920 -11.547530 6.719432 15.683321 23.491708 42.484982 42.484982 
22.035813 22.035813 6.610890 -7.563855 -14.884770 -23.787752 -34.115759 -37.634128 -36.642730 -36.411176 -35.948704 -35.811991 -35.783125 -35.948704 -36.281220 -36.543666 -36.360463 -32.044818 -17.718150 -2.151958 6.706318 17.250844 35.862748 35.862748 
24.802232 24.802232 8.068455 -5.813939 -12.674682 -23.062756 -34.605139 -37.066148 -36.132182 -36.147669 -35.783125 -35.709089 -35.709089 -35.811991 -36.094592 -36.148766 -36.439593 -33.961178 -21.044459 -8.450338 -0.870333 11.812824 29.638015 29.638015 
29.638015 29.638015 11.812824 -0.870333 -8.450338 -21.044459 -33.961178 -36.439593 -36.148766 -36.094592 -35.811991 -35.709089 -35.709089 -35.783125 -36.147669 -36.132182 -37.066148 -34.605139 -23.062756 -12.674682 -5.813939 8.068455 24.802232 24.802232 
35.862748 35.862748 17.250844 6.706318 -2.151958 -17.718150 -32.044818 -36.360463 -36.543666 -36.281220 -35.948704 -35.783125 -35.811991 -35.948704 -36.411176 -36.642730 -37.634128 -34.115759 -23.787752 -14.884770 -7.563855 6.610890 22.035813 22.035813 
42.484982 42.484982 23.491708 15.683321 6.719432 -11.547530 -28.164920 -36.328966 -37.111274 -36.819728 -36.411176 -36.147669 -36.094592 -36.281220 -36.819728 -37.762361 -37.317494 -31.920553 -21.853028 -13.927010 -5.751290 7.920909 21.904389 21.904389 
48.962541 48.962541 29.799515 24.665009 17.143724 -2.022034 -20.681571 -33.548102 -37.691886 -37.762361 -36.642730 -36.132182 -36.148766 -36.543666 -37.111274 -37.691886 -34.489787 -26.205246 -16.042980 -8.534060 -0.149078 12.442423 24.974939 24.974939 
55.253985 55.253985 35.721354 33.002869 27.287603 8.766794 -9.964941 -25.932611 -34.489787 -37.317494 -37.634128 -37.066148 -36.439593 -36.360463 -36.328966 -33.548102 -25.932611 -15.070554 -5.527769 1.536277 9.403732 20.683822 31.865277 31.865277 
61.772335 61.772335 41.060943 40.056040 35.895775 18.172024 0.970811 -15.070554 -26.205246 -31.920553 -34.115759 -34.605139 -33.961178 -32.044818 -28.164920 -20.681571 -9.964941 0.970811 9.268653 15.599721 22.811351 32.999703 43.032655 43.032655 
69.563409 69.563409 46.369373 45.968615 42.874970 25.311648 9.268653 -5.527769 -16.042980 -21.853028 -23.787752 -23.062756 -21.044459 -17.718150 -11.547530 -2.022034 8.766794 18.172024 25.311648 31.304853 38.505122 48.365209 57.849581 57.849581 
79.818937 79.818937 53.319252 51.954779 49.309807 31.304853 15.599721 1.536277 -8.534060 -13.927010 -14.884770 -12.674682 -8.450338 -2.151958 6.719432 17.143724 27.287603 35.895775 42.874970 49.309807 57.128106 67.255733 76.279846 76.279846 
93.629760 93.629760 64.460450 60.148377 57.128106 38.505122 22.811351 9.403732 -0.149078 -5.751290 -7.563855 -5.813939 -0.870333 6.706318 15.683321 24.665009 33.002869 40.056040 45.968615 51.954779 60.148377 71.092325 80.242765 80.242765 
110.488255 110.488255 79.595874 71.092325 67.255733 48.365209 32.999703 20.683822 12.442423 7.920909 6.610890 8.068455 11.812824 17.250844 23.491708 29.799515 35.721354 41.060943 46.369373 53.319252 64.460450 79.595874 92.211113 92.211113 
124.570782 124.570782 92.211113 80.242765 76.279846 57.849581 43.032655 31.865277 24.974939 21.904389 22.035813 24.802232 29.638015 35.862748 42.484982 48.962541 55.253985 61.772335 69.563409 79.818937 93.629760 110.488255 124.570782 124.570782 
124.570782 124.570782 92.211113 80.242765 76.279846 57.849581 43.032655 31.865277 24.974939 21.904389 22.035813 24.802232 29.638015 35.862748 42.484982 48.962541 55.253985 61.772335 69.563409 79.818937 93.629760 110.488255 124.570782 124.570782 
98.404459 98.404459 87.144633 74.295658 62.397319 52.856378 45.301728 38.430423 31.431083 24.545892 18.207146 12.649642 8.654178 6.967952 8.075846 12.134915 19.651490 31.394575 47.189868 64.618388 71.481850 84.130893 98.404459 98.404459 
98.404459 98.404459 87.144633 74.295658 62.397319 52.856378 45.301728 38.430423 31.431083 24.545892 18.207146 12.649642 8.654178 6.967952 8.075846 12.134915 19.651490 31.394575 47.189868 64.618388 71.481850 84.130893 98.404459 98.404459 
84.130893 84.130893 67.013845 50.136633 39.704710 33.535916 28.251908 22.202323 15.285496 8.271100 1.966475 -3.183026 -6.487250 -7.378566 -5.369784 -0.204286 8.502308 21.184211 37.080482 54.573397 59.596327 67.013845 87.144633 87.144633 
71.481850 71.481850 59.596327 47.261762 39.114646 33.481049 27.676742 20.560908 12.258601 3.671019 -4.261435 -11.018692 -15.707535 -17.440558 -15.590672 -9.862744 -0.248748 12.966804 28.358331 45.235965 47.261762 50.136633 74.295658 74.295658 
64.618388 64.618388 54.573397 45.235965 38.833570 33.623307 27.481607 19.385195 9.750768 -0.037772 -8.649538 -15.298261 -19.785973 -21.888219 -20.846738 -15.618782 -5.845920 7.666775 22.651399 38.833570 39.114646 39.704710 62.397319 62.397319 
47.189868 47.189868 37.080482 28.358331 22.651399 17.824027 11.324346 2.315342 -7.757426 -16.434657 -22.411305 -25.650891 -27.295496 -27.862982 -26.366263 -21.189399 -11.327066 2.669673 17.824027 33.623307 33.481049 33.535916 52.856378 52.856378 
31.394575 31.394575 21.184211 12.966804 7.666775 2.669673 -4.820920 -14.695864 -23.929892 -30.022724 -33.096903 -34.635154 -35.426173 -35.442603 -33.933995 -29.311411 -19.601782 -4.820920 11.324346 27.481607 27.676742 28.251908 45.301728 45.301728 
19.651490 19.651490 8.502308 -0.248748 -5.845920 -11.327066 -19.601782 -28.650833 -34.588386 -36.425517 -36.276782 -36.245756 -36.843321 -37.613099 -37.650934 -35.675114 -28.650833 -14.695864 2.315342 19.385195 20.560908 22.202323 38.430423 38.430423 
12.134915 12.134915 -0.204286 -9.862744 -15.618782 -21.189399 -29.311411 -35.675114 -37.761199 -37.046475 -36.504795 -36.136839 -36.148880 -36.524746 -37.555552 -37.761199 -34.588386 -23.929892 -7.757426 9.750768 12.258601 15.285496 31.431083 31.431083 
8.075846 8.075846 -5.369784 -15.590672 -20.846738 -26.366263 -33.933995 -37.650934 -37.555552 -36.807048 -36.277206 -36.106533 -36.160777 -36.406518 -36.807048 -37.046475 -36.425517 -30.022724 -16.434657 -0.037772 3.671019 8.271100 24.545892 24.545892 
6.967952 6.967952 -7.378566 -17.440558 -21.888219 -27.862982 -35.442603 -37.613099 -36.524746 -36.406518 -35.989961 -35.872111 -35.847766 -35.989961 -36.277206 -36.504795 -36.276782 -33.096903 -22.411305 -8.649538 -4.261435 1.966475 18.207146 18.207146 
8.654178 8.654178 -6.487250 -15.707535 -19.785973 -27.295496 -35.426173 -36.843321 -36.148880 -36.160777 -35.847766 -35.782509 -35.782509 -35.872111 -36.106533 -36.136839 -36.245756 -34.635154 -25.650891 -15.298261 -11.018692 -3.183026 12.649642 12.649642 
12.649642 12.649642 -3.183026 -11.018692 -15.298261 -25.650891 -34.635154 -36.245756 -36.136839 -36.106533 -35.872111 -35.782509 -35.782509 -35.847766 -36.160777 -36.148880 -36.843321 -35.426173 -27.295496 -19.785973 -15.707535 -6.487250 8.654178 8.654178 
18.207146 18.207146 1.966475 -4.261435 -8.649538 -22.411305 -33.096903 -36.276782 -36.504795 -36.277206 -35.989961 -35.847766 -35.872111 -35.989961 -36.406518 -36.524746 -37.613099 -35.442603 -27.862982 -21.888219 -17.440558 -7.378566 6.967952 6.967952 
24.545892 24.545892 8.271100 3.671019 -0.037772 -16.434657 -30.022724 -36.425517 -37.046475 -36.807048 -36.406518 -36.160777 -36.106533 -36.277206 -36.807048 -37.555552 -37.650934 -33.933995 -26.366263 -20.846738 -15.590672 -5.369784 8.075846 8.075846 
31.431083 31.431083 15.285496 12.258601 9.750768 -7.757426 -23.929892 -34.588386 -37.761199 -37.555552 -36.524746 -36.148880 -36.136839 -36.504795 -37.046475 -37.761199 -35.675114 -29.311411 -21.189399 -15.618782 -9.862744 -0.204286 12.134915 12.134915 
38.430423 38.430423 22.202323 20.560908 19.385195 2.315342 -14.695864 -28.650833 -35.675114 -37.650934 -37.613099 -36.843321 -36.245756 -36.276782 -36.425517 -34.588386 -28.650833 -19.601782 -11.327066 -5.845920 -0.248748 8.502308 19.651490 19.651490 
45.301728 45.301728 28.251908 27.676742 27.481607 11.324346 -4.820920 -19.601782 -29.311411 -33.933995 -35.442603 -35.426173 -34.635154 -33.096903 -30.022724 -23.929892 -14.695864 -4.820920 2.669673 7.666775 12.966804 21.184211 31.394575 31.394575 
52.856378 52.856378 33.535916 33.481049 33.623307 17.824027 2.669673 -11.327066 -21.189399 -26.366263 -27.862982 -27.295496 -25.650891 -22.411305 -16.434657 -7.757426 2.315342 11.324346 17.824027 22.651399 28.358331 37.080482 47.189868 47.189868 
62.397319 62.397319 39.704710 39.114646 38.833570 22.651399 7.666775 -5.845920 -15.618782 -20.846738 -21.888219 -19.785973 -15.298261 -8.649538 -0.037772 9.750768 19.385195 27.481607 33.623307 38.833570 45.235965 54.573397 64.618388 64.618388 
74.295658 74.295658 50.136633 47.261762 45.235965 28.358331 12.966804 -0.248748 -9.862744 -15.590672 -17.440558 -15.707535 -11.018692 -4.261435 3.671019 12.258601 20.560908 27.676742 33.481049 39.114646 47.261762 59.596327 71.481850 71.481850 
87.144633 87.144633 67.013845 59.596327 54.573397 37.080482 21.184211 8.502308 -0.204286 -5.369784 -7.378566 -6.487250 -3.183026 1.966475 8.271100 15.285496 22.202323 28.251908 33.535916 39.704710 50.136633 67.013845 84.130893 84.130893 
98.404459 98.404459 84.130893 71.481850 64.618388 47.189868 31.394575 19.651490 12.134915 8.075846 6.967952 8.654178 12.649642 18.207146 24.545892 31.431083 38.430423 45.301728 52.856378 62.397319 74.295658 87.144633 98.404459 98.404459 
98.404459 98.404459 84.130893 71.481850 64.618388 47.189868 31.394575 19.651490 12.134915 8.075846 6.967952 8.654178 12.649642 18.207146 24.545892 31.431083 38.430423 45.301728 52.856378 62.397319 74.295658 87.144633 98.404459 98.404459 
104.907557 104.907557 97.048968 84.632660 69.348064 55.043955 42.631574 31.484745 21.473134 12.865291 5.969310 1.145286 -1.892036 -3.236181 -1.938548 2.152246 9.225394 20.016131 35.384189 54.428314 74.326628 100.168808 104.907557 104.907557 
104.907557 104.907557 97.048968 84.632660 69.348064 55.043955 42.631574 31.484745 21.473134 12.865291 5.969310 1.145286 -1.892036 -3.236181 -1.938548 2.152246 9.225394 20.016131 35.384189 54.428314 74.326628 100.168808 104.907557 104.907557 
100.168808 100.168808 77.855632 59.250516 46.509787 36.653670 27.064613 16.675845 6.348519 -2.723558 -10.017851 -15.249643 -18.218882 -18.937987 -16.888295 -11.910773 -3.775449 7.966487 23.506506 41.232957 57.795267 77.855632 97.048968 97.048968 
74.326628 74.326628 57.795267 43.547682 34.849522 28.635957 21.765885 13.006301 3.189917 -6.075692 -13.688385 -19.364058 -23.231519 -25.023544 -23.674414 -18.679994 -9.967138 2.081333 16.560739 31.403516 43.547682 59.250516 84.632660 84.632660 
54.428314 54.428314 41.232957 31.403516 26.529338 23.027693 18.019509 10.512249 1.403952 -7.528048 -15.068897 -20.858421 -24.792254 -26.698659 -25.877364 -21.381137 -12.785586 -0.678041 13.176064 26.529338 34.849522 46.509787 69.348064 69.348064 
35.384189 35.384189 23.506506 16.560739 13.176064 9.783258 3.766574 -4.844620 -13.986981 -21.552907 -26.717390 -29.785813 -31.195237 -31.352444 -29.939345 -25.491120 -16.782518 -4.229414 9.783258 23.027693 28.635957 36.653670 55.043955 55.043955 
20.016131 20.016131 7.966487 2.081333 -0.678041 -4.229414 -11.070240 -19.758019 -27.234615 -31.794746 -34.028320 -35.146350 -35.873432 -36.220849 -35.445044 -31.969898 -23.975943 -11.070240 3.766574 18.019509 21.765885 27.064613 42.631574 42.631574 
9.225394 9.225394 -3.775449 -9.967138 -12.785586 -16.782518 -23.975943 -31.189285 -35.374701 -36.437245 -36.258934 -36.229136 -36.632854 -37.385351 -37.756058 -36.506315 -31.189285 -19.758019 -4.844620 10.512249 13.006301 16.675845 31.484745 31.484745 
2.152246 2.152246 -11.910773 -18.679994 -21.381137 -25.491120 -31.969898 -36.506315 -37.587417 -36.975481 -36.529480 -36.240819 -36.274439 -36.571128 -37.346584 -37.587417 -35.374701 -27.234615 -13.986981 1.403952 3.189917 6.348519 21.473134 21.473134 
-1.938548 -1.938548 -16.888295 -23.674414 -25.877364 -29.939345 -35.445044 -37.756058 -37.346584 -36.823699 -36.385756 -36.258919 -36.301991 -36.510435 -36.823699 -36.975481 -36.437245 -31.794746 -21.552907 -7.528048 -6.075692 -2.723558 12.865291 12.865291 
-3.236181 -3.236181 -18.937987 -25.023544 -26.698659 -31.352444 -36.220849 -37.385351 -36.571128 -36.510435 -36.182297 -36.095908 -36.076294 -36.182297 -36.385756 -36.529480 -36.258934 -34.028320 -26.717390 -15.068897 -13.688385 -10.017851 5.969310 5.969310 
-1.892036 -1.892036 -18.218882 -23.231519 -24.792254 -31.195237 -35.873432 -36.632854 -36.274439 -36.301991 -36.076294 -36.031838 -36.031838 -36.095908 -36.258919 -36.240819 -36.229136 -35.146350 -29.785813 -20.858421 -19.364058 -15.249643 1.145286 1.145286 
1.145286 1.145286 -15.249643 -19.364058 -20.858421 -29.785813 -35.146350 -36.229136 -36.240819 -36.258919 -36.095908 -36.031838 -36.031838 -36.076294 -36.301991 -36.274439 -36.632854 -35.873432 -31.195237 -24.792254 -23.231519 -18.218882 -1.892036 -1.892036 
5.969310 5.969310 -10.017851 -13.688385 -15.068897 -26.717390 -34.028320 -36.258934 -36.529480 -36.385756 -36.182297 -36.076294 -36.095908 -36.182297 -36.510435 -36.571128 -37.385351 -36.220849 -31.352444 -26.698659 -25.023544 -18.937987 -3.236181 -3.236181 
12.865291 12.865291 -2.723558 -6.075692 -7.528048 -21.552907 -31.794746 -36.437245 -36.975481 -36.823699 -36.510435 -36.301991 -36.258919 -36.385756 -36.823699 -37.346584 -37.756058 -35.445044 -29.939345 -25.877364 -23.674414 -16.888295 -1.938548 -1.938548 
21.473134 21.473134 6.348519 3.189917 1.403952 -13.986981 -27.234615 -35.374701 -37.587417 -37.346584 -36.571128 -36.274439 -36.240819 -36.529480 -36.975481 -37.587417 -36.506315 -31.969898 -25.491120 -21.381137 -18.679994 -11.910773 2.152246 2.152246 
31.484745 31.484745 16.675845 13.006301 10.512249 -4.844620 -19.758019 -31.189285 -36.506315 -37.756058 -37.385351 -36.632854 -36.229136 -36.258934 -36.437245 -35.374701 -31.189285 -23.975943 -16.782518 -12.785586 -9.967138 -3.775449 9.225394 9.225394 
42.631574 42.631574 27.064613 21.765885 18.019509 3.766574 -11.070240 -23.975943 -31.969898 -35.445044 -36.220849 -35.873432 -35.146350 -34.028320 -31.794746 -27.234615 -19.758019 -11.070240 -4.229414 -0.678041 2.081333 7.966487 20.016131 20.016131 
55.043955 55.043955 36.653670 28.635957 23.027693 9.783258 -4.229414 -16.782518 -25.491120 -29.939345 -31.352444 -31.195237 -29.785813 -26.717390 -21.552907 -13.986981 -4.844620 3.766574 9.783258 13.176064 16.560739 23.506506 35.384189 35.384189 
69.348064 69.348064 46.509787 34.849522 26.529338 13.176064 -0.678041 -12.785586 -21.381137 -25.877364 -26.698659 -24.792254 -20.858421 -15.068897 -7.528048 1.403952 10.512249 18.019509 23.027693 26.529338 31.403516 41.232957 54.428314 54.428314 
84.632660 84.632660 59.250516 43.547682 31.403516 16.560739 2.081333 -9.967138 -18.679994 -23.674414 -25.023544 -23.231519 -19.364058 -13.688385 -6.075692 3.189917 13.006301 21.765885 28.635957 34.849522 43.547682 57.795267 74.326628 74.326628 
97.048968 97.048968 77.855632 57.795267 41.232957 23.506506 7.966487 -3.775449 -11.910773 -16.888295 -18.937987 -18.218882 -15.249643 -10.017851 -2.723558 6.348519 16.675845 27.064613 36.653670 46.509787 59.250516 77.855632 100.168808 100.168808 
104.907557 104.907557 100.168808 74.326628 54.428314 35.384189 20.016131 9.225394 2.152246 -1.938548 -3.236181 -1.892036 1.145286 5.969310 12.865291 21.473134 31.484745 42.631574 55.043955 69.348064 84.632660 97.048968 104.907557 104.907557 
104.907557 104.907557 100.168808 74.326628 54.428314 35.384189 20.016131 9.225394 2.152246 -1.938548 -3.236181 -1.892036 1.145286 5.969310 12.865291 21.473134 31.484745 42.631574 55.043955 69.348064 84.632660 97.048968 104.907557 104.907557 
119.557080 119.557080 113.367608 98.760804 79.562861 61.458847 45.782289 31.905316 20.035800 10.124393 1.485242 -5.250845 -9.371553 -11.223304 -10.530347 -6.824337 0.054444 10.584601 25.902771 46.880491 74.236865 112.134860 119.557080 119.557080 
119.557080 119.557080 113.367608 98.760804 79.562861 61.458847 45.782289 31.905316 20.035800 10.124393 1.485242 -5.250845 -9.371553 -11.223304 -10.530347 -6.824337 0.054444 10.584601 25.902771 46.880491 74.236865 112.134860 119.557080 119.557080 
112.134860 112.134860 84.995466 63.846535 49.556915 37.342335 24.618483 11.013852 -1.769403 -12.229893 -20.643665 -26.422050 -29.392542 -30.050782 -27.878381 -23.057105 -15.465974 -4.334987 11.360841 31.361662 54.780978 84.995466 113.367608 113.367608 
74.236865 74.236865 54.780978 40.636048 33.369472 27.086240 18.502006 7.669209 -3.610278 -13.697776 -21.725220 -27.030554 -30.221867 -31.494591 -30.125395 -25.849962 -18.450193 -7.747163 6.155549 22.318883 40.636048 63.846535 98.760804 98.760804 
46.880491 46.880491 31.361662 22.318883 19.547186 16.512608 10.805381 2.872504 -5.756913 -13.895321 -20.544867 -25.030710 -27.707985 -29.098132 -28.453020 -25.025766 -17.974114 -7.600487 5.513980 19.547186 33.369472 49.556915 79.562861 79.562861 
25.902771 25.902771 11.360841 6.155549 5.513980 3.451419 -2.197421 -10.303116 -18.505497 -25.082577 -29.520168 -31.990874 -33.067142 -33.123029 -31.810380 -28.034509 -20.682326 -9.757496 3.451419 16.512608 27.086240 37.342335 61.458847 61.458847 
10.584601 10.584601 -4.334987 -7.747163 -7.600487 -9.757496 -15.793437 -23.233650 -29.198507 -32.722745 -34.445891 -35.269449 -35.761807 -36.126779 -35.766721 -33.231382 -26.798236 -15.793437 -2.197421 10.805381 18.502006 24.618483 45.782289 45.782289 
0.054444 0.054444 -15.465974 -18.450193 -17.974114 -20.682326 -26.798236 -32.441927 -35.439876 -36.191425 -36.165884 -36.167133 -36.404990 -36.978550 -37.388422 -36.524708 -32.441927 -23.233650 -10.303116 2.872504 7.669209 11.013852 31.905316 31.905316 
-6.824337 -6.824337 -23.057105 -25.849962 -25.025766 -28.034509 -33.231382 -36.524708 -37.158313 -36.810643 -36.510057 -36.333107 -36.355914 -36.570138 -37.064113 -37.158313 -35.439876 -29.198507 -18.505497 -5.756913 -3.610278 -1.769403 20.035800 20.035800 
-10.530347 -10.530347 -27.878381 -30.125395 -28.453020 -31.810380 -35.766721 -37.388422 -37.064113 -36.808576 -36.514578 -36.440812 -36.472162 -36.618907 -36.808576 -36.810643 -36.191425 -32.722745 -25.082577 -13.895321 -13.697776 -12.229893 10.124393 10.124393 
-11.223304 -11.223304 -30.050782 -31.494591 -29.098132 -33.123029 -36.126779 -36.978550 -36.570138 -36.618907 -36.414805 -36.374224 -36.356872 -36.414805 -36.514578 -36.510057 -36.165884 -34.445891 -29.520168 -20.544867 -21.725220 -20.643665 1.485242 1.485242 
-9.371553 -9.371553 -29.392542 -30.221867 -27.707985 -33.067142 -35.761807 -36.404990 -36.355914 -36.472162 -36.356872 -36.346933 -36.346933 -36.374224 -36.440812 -36.333107 -36.167133 -35.269449 -31.990874 -25.030710 -27.030554 -26.422050 -5.250845 -5.250845 
-5.250845 -5.250845 -26.422050 -27.030554 -25.030710 -31.990874 -35.269449 -36.167133 -36.333107 -36.440812 -36.374224 -36.346933 -36.346933 -36.356872 -36.472162 -36.355914 -36.404990 -35.761807 -33.067142 -27.707985 -30.221867 -29.392542 -9.371553 -9.371553 
1.485242 1.485242 -20.643665 -21.725220 -20.544867 -29.520168 -34.445891 -36.165884 -36.510057 -36.514578 -36.414805 -36.356872 -36.374224 -36.414805 -36.618907 -36.570138 -36.978550 -36.126779 -33.123029 -29.098132 -31.494591 -30.050782 -11.223304 -11.223304 
10.124393 10.124393 -12.229893 -13.697776 -13.895321 -25.082577 -32.722745 -36.191425 -36.810643 -36.808576 -36.618907 -36.472162 -36.440812 -36.514578 -36.808576 -37.064113 -37.388422 -35.766721 -31.810380 -28.453020 -30.125395 -27.878381 -10.530347 -10.530347 
20.035800 20.035800 -1.769403 -3.610278 -5.756913 -18.505497 -29.198507 -35.439876 -37.158313 -37.064113 -36.570138 -36.355914 -36.333107 -36.510057 -36.810643 -37.158313 -36.524708 -33.231382 -28.034509 -25.025766 -25.849962 -23.057105 -6.824337 -6.824337 
31.905316 31.905316 11.013852 7.669209 2.872504 -10.303116 -23.233650 -32.441927 -36.524708 -37.388422 -36.978550 -36.404990 -36.167133 -36.165884 -36.191425 -35.439876 -32.441927 -26.798236 -20.682326 -17.974114 -18.450193 -15.465974 0.054444 0.054444 
45.782289 45.782289 24.618483 18.502006 10.805381 -2.197421 -15.793437 -26.798236 -33.231382 -35.766721 -36.126779 -35.761807 -35.269449 -34.445891 -32.722745 -29.198507 -23.233650 -15.793437 -9.757496 -7.600487 -7.747163 -4.334987 10.584601 10.584601 
61.458847 61.458847 37.342335 27.086240 16.512608 3.451419 -9.757496 -20.682326 -28.034509 -31.810380 -33.123029 -33.067142 -31.990874 -29.520168 -25.082577 -18.505497 -10.303116 -2.197421 3.451419 5.513980 6.155549 11.360841 25.902771 25.902771 
79.562861 79.562861 49.556915 33.369472 19.547186 5.513980 -7.600487 -17.974114 -25.025766 -28.453020 -29.098132 -27.707985 -25.030710 -20.544867 -13.895321 -5.756913 2.872504 10.805381 16.512608 19.547186 22.318883 31.361662 46.880491 46.880491 
98.760804 98.760804 63.846535 40.636048 22.318883 6.155549 -7.747163 -18.450193 -25.849962 -30.125395 -31.494591 -30.221867 -27.030554 -21.725220 -13.697776 -3.610278 7.669209 18.502006 27.086240 33.369472 40.636048 54.780978 74.236865 74.236865 
113.367608 113.367608 84.995466 54.780978 31.361662 11.360841 -4.334987 -15.465974 -23.057105 -27.878381 -30.050782 -29.392542 -26.422050 -20.643665 -12.229893 -1.769403 11.013852 24.618483 37.342335 49.556915 63.846535 84.995466 112.134860 112.134860 
119.557080 119.557080 112.134860 74.236865 46.880491 25.902771 10.584601 0.054444 -6.824337 -10.530347 -11.223304 -9.371553 -5.250845 1.485242 10.124393 20.035800 31.905316 45.782289 61.458847 79.562861 98.760804 113.367608 119.557080 119.557080 